Converted from PDB
   88
    1MOL     C     1   3.317   2.069   2.434
    1MOL     C2    2   3.443   2.002   2.380
    1MOL     C3    3   3.439   1.850   2.401
    1MOL     C4    4   3.565   1.782   2.346
    1MOL     O1    5   3.577   1.801   2.205
    1MOL     C5    6   3.498   1.738   2.107
    1MOL     C6    7   3.407   1.635   2.137
    1MOL     C7    8   3.328   1.577   2.036
    1MOL     C8    9   3.229   1.471   2.075
    1MOL     C9   10   3.343   1.621   1.902
    1MOL    C10   11   3.435   1.724   1.874
    1MOL    C11   12   3.511   1.781   1.975
    1MOL    C12   13   3.263   1.565   1.790
    1MOL     O2   14   3.239   1.636   1.689
    1MOL     O3   15   3.220   1.432   1.793
    1MOL    C13   16   3.103   1.385   1.732
    1MOL    C14   17   2.993   1.469   1.711
    1MOL    C15   18   2.876   1.418   1.654
    1MOL    C16   19   2.866   1.283   1.616
    1MOL    C17   20   2.737   1.238   1.557
    1MOL     N1   21   2.714   1.119   1.499
    1MOL     N2   22   2.588   1.119   1.460
    1MOL    C18   23   2.538   1.240   1.495
    1MOL     O4   24   2.629   1.312   1.555
    1MOL    C19   25   2.400   1.284   1.470
    1MOL    C20   26   2.360   1.413   1.509
    1MOL    C21   27   2.230   1.458   1.484
    1MOL    C22   28   2.139   1.376   1.417
    1MOL     O5   29   2.012   1.427   1.389
    1MOL    C23   30   1.964   1.448   1.260
    1MOL     O6   31   2.033   1.413   1.160
    1MOL    C24   32   1.832   1.512   1.237
    1MOL    C25   33   1.776   1.605   1.329
    1MOL    C26   34   1.847   1.646   1.455
    1MOL    C27   35   1.651   1.664   1.300
    1MOL    C28   36   1.583   1.633   1.181
    1MOL     O7   37   1.460   1.692   1.148
    1MOL    C29   38   1.395   1.792   1.226
    1MOL    C30   39   1.268   1.839   1.154
    1MOL    C31   40   1.198   1.950   1.233
    1MOL    C32   41   1.072   1.998   1.161
    1MOL    C33   42   1.639   1.542   1.092
    1MOL    C34   43   1.762   1.483   1.119
    1MOL    C35   44   2.176   1.245   1.381
    1MOL    CL1   45   2.061   1.135   1.307
    1MOL    C36   46   2.307   1.200   1.407
    1MOL    C37   47   2.978   1.198   1.637
    1MOL    C38   48   2.976   1.052   1.600
    1MOL    C39   49   3.095   1.250   1.696
    1MOL     H1   50   3.324   2.179   2.420
    1MOL     H2   51   3.305   2.047   2.543
    1MOL     H3   52   3.227   2.031   2.380
    1MOL     H4   53   3.452   2.026   2.272
    1MOL     H5   54   3.531   2.045   2.433
    1MOL     H6   55   3.431   1.828   2.510
    1MOL     H7   56   3.349   1.808   2.352
    1MOL     H8   57   3.654   1.827   2.396
    1MOL     H9   58   3.565   1.674   2.372
    1MOL    H10   59   3.397   1.599   2.238
    1MOL    H11   60   3.265   1.371   2.042
    1MOL    H12   61   3.214   1.467   2.185
    1MOL    H13   62   3.130   1.492   2.030
    1MOL    H14   63   3.448   1.760   1.772
    1MOL    H15   64   3.581   1.860   1.951
    1MOL    H16   65   2.995   1.572   1.742
    1MOL    H17   66   2.792   1.486   1.640
    1MOL    H18   67   2.430   1.480   1.559
    1MOL    H19   68   2.201   1.558   1.514
    1MOL    H20   69   1.844   1.563   1.529
    1MOL    H21   70   1.952   1.674   1.433
    1MOL    H22   71   1.799   1.735   1.502
    1MOL    H23   72   1.608   1.734   1.371
    1MOL    H24   73   1.463   1.879   1.240
    1MOL    H25   74   1.368   1.750   1.325
    1MOL    H26   75   1.199   1.752   1.142
    1MOL    H27   76   1.296   1.877   1.053
    1MOL    H28   77   1.267   2.036   1.245
    1MOL    H29   78   1.170   1.913   1.334
    1MOL    H30   79   1.098   2.038   1.061
    1MOL    H31   80   1.024   2.079   1.220
    1MOL    H32   81   1.000   1.914   1.150
    1MOL    H33   82   1.587   1.518   1.000
    1MOL    H34   83   1.802   1.412   1.047
    1MOL    H35   84   2.335   1.100   1.378
    1MOL    H36   85   2.891   1.001   1.651
    1MOL    H37   86   3.069   1.000   1.631
    1MOL    H38   87   2.966   1.041   1.490
    1MOL    H39   88   3.180   1.187   1.714
   4.65410   3.17850   3.54280
